+ 0.3 0 2 tcp 40 ------- 2 0.0 4.0 0 0
- 0.3 0 2 tcp 40 ------- 2 0.0 4.0 0 0
r 0.31016 0 2 tcp 40 ------- 2 0.0 4.0 0 0
+ 0.31016 2 3 tcp 40 ------- 2 0.0 4.0 0 0
- 0.31016 2 3 tcp 40 ------- 2 0.0 4.0 0 0
r 0.411227 2 3 tcp 40 ------- 2 0.0 4.0 0 0
h 0.411227 3 6 tcp 40 ------- 2 0.0 4.0 0 0
+ 0.451227 3 6 tcp 40 ------- 2 0.0 4.0 0 0
- 0.451227 3 6 tcp 40 ------- 2 0.0 4.0 0 0
d 0.451231 5 6 tcp 40 ------- 2 0.0 4.0 0 0
r 0.491231 6 4 tcp 40 ------- 2 0.0 4.0 0 0
h 0.491231 4 6 ack 40 ------- 2 4.0 0.0 0 1
+ 0.531231 4 6 ack 40 ------- 2 4.0 0.0 0 1
- 0.531231 4 6 ack 40 ------- 2 4.0 0.0 0 1
d 0.531235 5 6 ack 40 ------- 2 4.0 0.0 0 1
r 0.571235 6 3 ack 40 ------- 2 4.0 0.0 0 1
+ 0.571235 3 2 ack 40 ------- 2 4.0 0.0 0 1
- 0.571235 3 2 ack 40 ------- 2 4.0 0.0 0 1
r 0.672301 3 2 ack 40 ------- 2 4.0 0.0 0 1
+ 0.672301 2 0 ack 40 ------- 2 4.0 0.0 0 1
- 0.672301 2 0 ack 40 ------- 2 4.0 0.0 0 1
r 0.682461 2 0 ack 40 ------- 2 4.0 0.0 0 1
+ 0.682461 0 2 tcp 1040 ------- 2 0.0 4.0 1 2
- 0.682461 0 2 tcp 1040 ------- 2 0.0 4.0 1 2
+ 0.682461 0 2 tcp 1040 ------- 2 0.0 4.0 2 3
- 0.686621 0 2 tcp 1040 ------- 2 0.0 4.0 2 3
r 0.696621 0 2 tcp 1040 ------- 2 0.0 4.0 1 2
+ 0.696621 2 3 tcp 1040 ------- 2 0.0 4.0 1 2
- 0.696621 2 3 tcp 1040 ------- 2 0.0 4.0 1 2
r 0.700781 0 2 tcp 1040 ------- 2 0.0 4.0 2 3
+ 0.700781 2 3 tcp 1040 ------- 2 0.0 4.0 2 3
- 0.724355 2 3 tcp 1040 ------- 2 0.0 4.0 2 3
r 0.824355 2 3 tcp 1040 ------- 2 0.0 4.0 1 2
h 0.824355 3 6 tcp 1040 ------- 2 0.0 4.0 1 2
r 0.852088 2 3 tcp 1040 ------- 2 0.0 4.0 2 3
h 0.852088 3 6 tcp 1040 ------- 2 0.0 4.0 2 3
+ 0.864355 3 6 tcp 1040 ------- 2 0.0 4.0 1 2
- 0.864355 3 6 tcp 1040 ------- 2 0.0 4.0 1 2
d 0.864359 5 6 tcp 1040 ------- 2 0.0 4.0 1 2
+ 0.892088 3 6 tcp 1040 ------- 2 0.0 4.0 2 3
- 0.892088 3 6 tcp 1040 ------- 2 0.0 4.0 2 3
d 0.892092 5 6 tcp 1040 ------- 2 0.0 4.0 2 3
r 0.904359 6 4 tcp 1040 ------- 2 0.0 4.0 1 2
h 0.904359 4 6 ack 40 ------- 2 4.0 0.0 1 4
r 0.932092 6 4 tcp 1040 ------- 2 0.0 4.0 2 3
h 0.932092 4 6 ack 40 ------- 2 4.0 0.0 2 5
+ 0.944359 4 6 ack 40 ------- 2 4.0 0.0 1 4
- 0.944359 4 6 ack 40 ------- 2 4.0 0.0 1 4
d 0.944363 5 6 ack 40 ------- 2 4.0 0.0 1 4
+ 0.972092 4 6 ack 40 ------- 2 4.0 0.0 2 5
- 0.972092 4 6 ack 40 ------- 2 4.0 0.0 2 5
d 0.972096 5 6 ack 40 ------- 2 4.0 0.0 2 5
r 0.984363 6 3 ack 40 ------- 2 4.0 0.0 1 4
+ 0.984363 3 2 ack 40 ------- 2 4.0 0.0 1 4
- 0.984363 3 2 ack 40 ------- 2 4.0 0.0 1 4
r 1.012096 6 3 ack 40 ------- 2 4.0 0.0 2 5
+ 1.012096 3 2 ack 40 ------- 2 4.0 0.0 2 5
- 1.012096 3 2 ack 40 ------- 2 4.0 0.0 2 5
r 1.085429 3 2 ack 40 ------- 2 4.0 0.0 1 4
+ 1.085429 2 0 ack 40 ------- 2 4.0 0.0 1 4
- 1.085429 2 0 ack 40 ------- 2 4.0 0.0 1 4
r 1.095589 2 0 ack 40 ------- 2 4.0 0.0 1 4
+ 1.095589 0 2 tcp 1040 ------- 2 0.0 4.0 3 6
- 1.095589 0 2 tcp 1040 ------- 2 0.0 4.0 3 6
+ 1.095589 0 2 tcp 1040 ------- 2 0.0 4.0 4 7
- 1.099749 0 2 tcp 1040 ------- 2 0.0 4.0 4 7
r 1.109749 0 2 tcp 1040 ------- 2 0.0 4.0 3 6
+ 1.109749 2 3 tcp 1040 ------- 2 0.0 4.0 3 6
- 1.109749 2 3 tcp 1040 ------- 2 0.0 4.0 3 6
r 1.113163 3 2 ack 40 ------- 2 4.0 0.0 2 5
+ 1.113163 2 0 ack 40 ------- 2 4.0 0.0 2 5
- 1.113163 2 0 ack 40 ------- 2 4.0 0.0 2 5
r 1.113909 0 2 tcp 1040 ------- 2 0.0 4.0 4 7
+ 1.113909 2 3 tcp 1040 ------- 2 0.0 4.0 4 7
r 1.123323 2 0 ack 40 ------- 2 4.0 0.0 2 5
+ 1.123323 0 2 tcp 1040 ------- 2 0.0 4.0 5 8
- 1.123323 0 2 tcp 1040 ------- 2 0.0 4.0 5 8
+ 1.123323 0 2 tcp 1040 ------- 2 0.0 4.0 6 9
- 1.127483 0 2 tcp 1040 ------- 2 0.0 4.0 6 9
r 1.137483 0 2 tcp 1040 ------- 2 0.0 4.0 5 8
+ 1.137483 2 3 tcp 1040 ------- 2 0.0 4.0 5 8
- 1.137483 2 3 tcp 1040 ------- 2 0.0 4.0 4 7
r 1.141643 0 2 tcp 1040 ------- 2 0.0 4.0 6 9
+ 1.141643 2 3 tcp 1040 ------- 2 0.0 4.0 6 9
- 1.165216 2 3 tcp 1040 ------- 2 0.0 4.0 5 8
- 1.192949 2 3 tcp 1040 ------- 2 0.0 4.0 6 9
r 1.237483 2 3 tcp 1040 ------- 2 0.0 4.0 3 6
h 1.237483 3 6 tcp 1040 ------- 2 0.0 4.0 3 6
r 1.265216 2 3 tcp 1040 ------- 2 0.0 4.0 4 7
h 1.265216 3 6 tcp 1040 ------- 2 0.0 4.0 4 7
+ 1.277483 3 6 tcp 1040 ------- 2 0.0 4.0 3 6
- 1.277483 3 6 tcp 1040 ------- 2 0.0 4.0 3 6
d 1.277487 5 6 tcp 1040 ------- 2 0.0 4.0 3 6
r 1.292949 2 3 tcp 1040 ------- 2 0.0 4.0 5 8
h 1.292949 3 6 tcp 1040 ------- 2 0.0 4.0 5 8
+ 1.305216 3 6 tcp 1040 ------- 2 0.0 4.0 4 7
- 1.305216 3 6 tcp 1040 ------- 2 0.0 4.0 4 7
d 1.30522 5 6 tcp 1040 ------- 2 0.0 4.0 4 7
r 1.317487 6 4 tcp 1040 ------- 2 0.0 4.0 3 6
h 1.317487 4 6 ack 40 ------- 2 4.0 0.0 3 10
+ 1.318317 1 2 tcp 40 ------- 0 1.0 5.0 0 11
- 1.318317 1 2 tcp 40 ------- 0 1.0 5.0 0 11
r 1.320683 2 3 tcp 1040 ------- 2 0.0 4.0 6 9
h 1.320683 3 6 tcp 1040 ------- 2 0.0 4.0 6 9
r 1.328477 1 2 tcp 40 ------- 0 1.0 5.0 0 11
+ 1.328477 2 3 tcp 40 ------- 0 1.0 5.0 0 11
- 1.328477 2 3 tcp 40 ------- 0 1.0 5.0 0 11
+ 1.332949 3 6 tcp 1040 ------- 2 0.0 4.0 5 8
- 1.332949 3 6 tcp 1040 ------- 2 0.0 4.0 5 8
d 1.332953 5 6 tcp 1040 ------- 2 0.0 4.0 5 8
r 1.34522 6 4 tcp 1040 ------- 2 0.0 4.0 4 7
h 1.34522 4 6 ack 40 ------- 2 4.0 0.0 4 12
+ 1.357487 4 6 ack 40 ------- 2 4.0 0.0 3 10
- 1.357487 4 6 ack 40 ------- 2 4.0 0.0 3 10
d 1.357491 5 6 ack 40 ------- 2 4.0 0.0 3 10
+ 1.360683 3 6 tcp 1040 ------- 2 0.0 4.0 6 9
- 1.360683 3 6 tcp 1040 ------- 2 0.0 4.0 6 9
d 1.360687 5 6 tcp 1040 ------- 2 0.0 4.0 6 9
r 1.372953 6 4 tcp 1040 ------- 2 0.0 4.0 5 8
h 1.372953 4 6 ack 40 ------- 2 4.0 0.0 5 13
+ 1.38522 4 6 ack 40 ------- 2 4.0 0.0 4 12
- 1.38522 4 6 ack 40 ------- 2 4.0 0.0 4 12
d 1.385224 5 6 ack 40 ------- 2 4.0 0.0 4 12
r 1.397491 6 3 ack 40 ------- 2 4.0 0.0 3 10
+ 1.397491 3 2 ack 40 ------- 2 4.0 0.0 3 10
- 1.397491 3 2 ack 40 ------- 2 4.0 0.0 3 10
r 1.400687 6 4 tcp 1040 ------- 2 0.0 4.0 6 9
h 1.400687 4 6 ack 40 ------- 2 4.0 0.0 6 14
+ 1.412953 4 6 ack 40 ------- 2 4.0 0.0 5 13
- 1.412953 4 6 ack 40 ------- 2 4.0 0.0 5 13
d 1.412957 5 6 ack 40 ------- 2 4.0 0.0 5 13
r 1.425224 6 3 ack 40 ------- 2 4.0 0.0 4 12
+ 1.425224 3 2 ack 40 ------- 2 4.0 0.0 4 12
- 1.425224 3 2 ack 40 ------- 2 4.0 0.0 4 12
r 1.429544 2 3 tcp 40 ------- 0 1.0 5.0 0 11
h 1.429544 3 6 tcp 40 ------- 0 1.0 5.0 0 11
+ 1.440687 4 6 ack 40 ------- 2 4.0 0.0 6 14
- 1.440687 4 6 ack 40 ------- 2 4.0 0.0 6 14
d 1.440691 5 6 ack 40 ------- 2 4.0 0.0 6 14
r 1.452957 6 3 ack 40 ------- 2 4.0 0.0 5 13
+ 1.452957 3 2 ack 40 ------- 2 4.0 0.0 5 13
- 1.452957 3 2 ack 40 ------- 2 4.0 0.0 5 13
+ 1.469544 3 6 tcp 40 ------- 0 1.0 5.0 0 11
- 1.469544 3 6 tcp 40 ------- 0 1.0 5.0 0 11
d 1.469548 4 6 tcp 40 ------- 0 1.0 5.0 0 11
r 1.480691 6 3 ack 40 ------- 2 4.0 0.0 6 14
+ 1.480691 3 2 ack 40 ------- 2 4.0 0.0 6 14
- 1.480691 3 2 ack 40 ------- 2 4.0 0.0 6 14
r 1.498557 3 2 ack 40 ------- 2 4.0 0.0 3 10
+ 1.498557 2 0 ack 40 ------- 2 4.0 0.0 3 10
- 1.498557 2 0 ack 40 ------- 2 4.0 0.0 3 10
r 1.508717 2 0 ack 40 ------- 2 4.0 0.0 3 10
+ 1.508717 0 2 tcp 1040 ------- 2 0.0 4.0 7 15
- 1.508717 0 2 tcp 1040 ------- 2 0.0 4.0 7 15
+ 1.508717 0 2 tcp 1040 ------- 2 0.0 4.0 8 16
r 1.509548 6 5 tcp 40 ------- 0 1.0 5.0 0 11
h 1.509548 5 6 ack 40 ------- 0 5.0 1.0 0 17
- 1.512877 0 2 tcp 1040 ------- 2 0.0 4.0 8 16
r 1.522877 0 2 tcp 1040 ------- 2 0.0 4.0 7 15
+ 1.522877 2 3 tcp 1040 ------- 2 0.0 4.0 7 15
- 1.522877 2 3 tcp 1040 ------- 2 0.0 4.0 7 15
r 1.526291 3 2 ack 40 ------- 2 4.0 0.0 4 12
+ 1.526291 2 0 ack 40 ------- 2 4.0 0.0 4 12
- 1.526291 2 0 ack 40 ------- 2 4.0 0.0 4 12
r 1.527037 0 2 tcp 1040 ------- 2 0.0 4.0 8 16
+ 1.527037 2 3 tcp 1040 ------- 2 0.0 4.0 8 16
r 1.536451 2 0 ack 40 ------- 2 4.0 0.0 4 12
+ 1.536451 0 2 tcp 1040 ------- 2 0.0 4.0 9 18
- 1.536451 0 2 tcp 1040 ------- 2 0.0 4.0 9 18
+ 1.536451 0 2 tcp 1040 ------- 2 0.0 4.0 10 19
- 1.540611 0 2 tcp 1040 ------- 2 0.0 4.0 10 19
+ 1.549548 5 6 ack 40 ------- 0 5.0 1.0 0 17
- 1.549548 5 6 ack 40 ------- 0 5.0 1.0 0 17
d 1.549552 4 6 ack 40 ------- 0 5.0 1.0 0 17
- 1.550611 2 3 tcp 1040 ------- 2 0.0 4.0 8 16
r 1.550611 0 2 tcp 1040 ------- 2 0.0 4.0 9 18
+ 1.550611 2 3 tcp 1040 ------- 2 0.0 4.0 9 18
r 1.554024 3 2 ack 40 ------- 2 4.0 0.0 5 13
+ 1.554024 2 0 ack 40 ------- 2 4.0 0.0 5 13
- 1.554024 2 0 ack 40 ------- 2 4.0 0.0 5 13
r 1.554771 0 2 tcp 1040 ------- 2 0.0 4.0 10 19
+ 1.554771 2 3 tcp 1040 ------- 2 0.0 4.0 10 19
r 1.564184 2 0 ack 40 ------- 2 4.0 0.0 5 13
+ 1.564184 0 2 tcp 1040 ------- 2 0.0 4.0 11 20
- 1.564184 0 2 tcp 1040 ------- 2 0.0 4.0 11 20
+ 1.564184 0 2 tcp 1040 ------- 2 0.0 4.0 12 21
- 1.568344 0 2 tcp 1040 ------- 2 0.0 4.0 12 21
- 1.578344 2 3 tcp 1040 ------- 2 0.0 4.0 9 18
r 1.578344 0 2 tcp 1040 ------- 2 0.0 4.0 11 20
+ 1.578344 2 3 tcp 1040 ------- 2 0.0 4.0 11 20
r 1.581757 3 2 ack 40 ------- 2 4.0 0.0 6 14
+ 1.581757 2 0 ack 40 ------- 2 4.0 0.0 6 14
- 1.581757 2 0 ack 40 ------- 2 4.0 0.0 6 14
r 1.582504 0 2 tcp 1040 ------- 2 0.0 4.0 12 21
+ 1.582504 2 3 tcp 1040 ------- 2 0.0 4.0 12 21
r 1.589552 6 3 ack 40 ------- 0 5.0 1.0 0 17
+ 1.589552 3 2 ack 40 ------- 0 5.0 1.0 0 17
- 1.589552 3 2 ack 40 ------- 0 5.0 1.0 0 17
r 1.591917 2 0 ack 40 ------- 2 4.0 0.0 6 14
+ 1.591917 0 2 tcp 1040 ------- 2 0.0 4.0 13 22
- 1.591917 0 2 tcp 1040 ------- 2 0.0 4.0 13 22
+ 1.591917 0 2 tcp 1040 ------- 2 0.0 4.0 14 23
- 1.596077 0 2 tcp 1040 ------- 2 0.0 4.0 14 23
- 1.606077 2 3 tcp 1040 ------- 2 0.0 4.0 10 19
r 1.606077 0 2 tcp 1040 ------- 2 0.0 4.0 13 22
+ 1.606077 2 3 tcp 1040 ------- 2 0.0 4.0 13 22
r 1.610237 0 2 tcp 1040 ------- 2 0.0 4.0 14 23
+ 1.610237 2 3 tcp 1040 ------- 2 0.0 4.0 14 23
- 1.633811 2 3 tcp 1040 ------- 2 0.0 4.0 11 20
r 1.650611 2 3 tcp 1040 ------- 2 0.0 4.0 7 15
h 1.650611 3 6 tcp 1040 ------- 2 0.0 4.0 7 15
- 1.661544 2 3 tcp 1040 ------- 2 0.0 4.0 12 21
r 1.678344 2 3 tcp 1040 ------- 2 0.0 4.0 8 16
h 1.678344 3 6 tcp 1040 ------- 2 0.0 4.0 8 16
- 1.689277 2 3 tcp 1040 ------- 2 0.0 4.0 13 22
+ 1.690611 3 6 tcp 1040 ------- 2 0.0 4.0 7 15
- 1.690611 3 6 tcp 1040 ------- 2 0.0 4.0 7 15
d 1.690615 5 6 tcp 1040 ------- 2 0.0 4.0 7 15
r 1.690619 3 2 ack 40 ------- 0 5.0 1.0 0 17
+ 1.690619 2 1 ack 40 ------- 0 5.0 1.0 0 17
- 1.690619 2 1 ack 40 ------- 0 5.0 1.0 0 17
r 1.700779 2 1 ack 40 ------- 0 5.0 1.0 0 17
+ 1.700779 1 2 tcp 592 ------- 0 1.0 5.0 1 24
- 1.700779 1 2 tcp 592 ------- 0 1.0 5.0 1 24
+ 1.700779 1 2 tcp 592 ------- 0 1.0 5.0 2 25
- 1.703147 1 2 tcp 592 ------- 0 1.0 5.0 2 25
r 1.706077 2 3 tcp 1040 ------- 2 0.0 4.0 9 18
h 1.706077 3 6 tcp 1040 ------- 2 0.0 4.0 9 18
r 1.713147 1 2 tcp 592 ------- 0 1.0 5.0 1 24
+ 1.713147 2 3 tcp 592 ------- 0 1.0 5.0 1 24
r 1.715515 1 2 tcp 592 ------- 0 1.0 5.0 2 25
+ 1.715515 2 3 tcp 592 ------- 0 1.0 5.0 2 25
- 1.717011 2 3 tcp 1040 ------- 2 0.0 4.0 14 23
+ 1.718344 3 6 tcp 1040 ------- 2 0.0 4.0 8 16
- 1.718344 3 6 tcp 1040 ------- 2 0.0 4.0 8 16
d 1.718348 5 6 tcp 1040 ------- 2 0.0 4.0 8 16
r 1.730615 6 4 tcp 1040 ------- 2 0.0 4.0 7 15
h 1.730615 4 6 ack 40 ------- 2 4.0 0.0 7 26
r 1.733811 2 3 tcp 1040 ------- 2 0.0 4.0 10 19
h 1.733811 3 6 tcp 1040 ------- 2 0.0 4.0 10 19
- 1.744744 2 3 tcp 592 ------- 0 1.0 5.0 1 24
+ 1.746077 3 6 tcp 1040 ------- 2 0.0 4.0 9 18
- 1.746077 3 6 tcp 1040 ------- 2 0.0 4.0 9 18
d 1.746081 5 6 tcp 1040 ------- 2 0.0 4.0 9 18
r 1.758348 6 4 tcp 1040 ------- 2 0.0 4.0 8 16
h 1.758348 4 6 ack 40 ------- 2 4.0 0.0 8 27
- 1.760531 2 3 tcp 592 ------- 0 1.0 5.0 2 25
r 1.761544 2 3 tcp 1040 ------- 2 0.0 4.0 11 20
h 1.761544 3 6 tcp 1040 ------- 2 0.0 4.0 11 20
+ 1.770615 4 6 ack 40 ------- 2 4.0 0.0 7 26
- 1.770615 4 6 ack 40 ------- 2 4.0 0.0 7 26
d 1.770619 5 6 ack 40 ------- 2 4.0 0.0 7 26
+ 1.773811 3 6 tcp 1040 ------- 2 0.0 4.0 10 19
- 1.773811 3 6 tcp 1040 ------- 2 0.0 4.0 10 19
d 1.773815 5 6 tcp 1040 ------- 2 0.0 4.0 10 19
r 1.786081 6 4 tcp 1040 ------- 2 0.0 4.0 9 18
h 1.786081 4 6 ack 40 ------- 2 4.0 0.0 9 28
r 1.789277 2 3 tcp 1040 ------- 2 0.0 4.0 12 21
h 1.789277 3 6 tcp 1040 ------- 2 0.0 4.0 12 21
+ 1.798348 4 6 ack 40 ------- 2 4.0 0.0 8 27
- 1.798348 4 6 ack 40 ------- 2 4.0 0.0 8 27
d 1.798352 5 6 ack 40 ------- 2 4.0 0.0 8 27
+ 1.801544 3 6 tcp 1040 ------- 2 0.0 4.0 11 20
- 1.801544 3 6 tcp 1040 ------- 2 0.0 4.0 11 20
d 1.801548 5 6 tcp 1040 ------- 2 0.0 4.0 11 20
r 1.810619 6 3 ack 40 ------- 2 4.0 0.0 7 26
+ 1.810619 3 2 ack 40 ------- 2 4.0 0.0 7 26
- 1.810619 3 2 ack 40 ------- 2 4.0 0.0 7 26
r 1.813815 6 4 tcp 1040 ------- 2 0.0 4.0 10 19
h 1.813815 4 6 ack 40 ------- 2 4.0 0.0 10 29
r 1.817011 2 3 tcp 1040 ------- 2 0.0 4.0 13 22
h 1.817011 3 6 tcp 1040 ------- 2 0.0 4.0 13 22
+ 1.826081 4 6 ack 40 ------- 2 4.0 0.0 9 28
- 1.826081 4 6 ack 40 ------- 2 4.0 0.0 9 28
d 1.826085 5 6 ack 40 ------- 2 4.0 0.0 9 28
+ 1.829277 3 6 tcp 1040 ------- 2 0.0 4.0 12 21
- 1.829277 3 6 tcp 1040 ------- 2 0.0 4.0 12 21
d 1.829281 5 6 tcp 1040 ------- 2 0.0 4.0 12 21
r 1.838352 6 3 ack 40 ------- 2 4.0 0.0 8 27
+ 1.838352 3 2 ack 40 ------- 2 4.0 0.0 8 27
- 1.838352 3 2 ack 40 ------- 2 4.0 0.0 8 27
r 1.841548 6 4 tcp 1040 ------- 2 0.0 4.0 11 20
h 1.841548 4 6 ack 40 ------- 2 4.0 0.0 11 30
r 1.844744 2 3 tcp 1040 ------- 2 0.0 4.0 14 23
h 1.844744 3 6 tcp 1040 ------- 2 0.0 4.0 14 23
+ 1.853815 4 6 ack 40 ------- 2 4.0 0.0 10 29
- 1.853815 4 6 ack 40 ------- 2 4.0 0.0 10 29
d 1.853819 5 6 ack 40 ------- 2 4.0 0.0 10 29
+ 1.857011 3 6 tcp 1040 ------- 2 0.0 4.0 13 22
- 1.857011 3 6 tcp 1040 ------- 2 0.0 4.0 13 22
d 1.857015 5 6 tcp 1040 ------- 2 0.0 4.0 13 22
r 1.860531 2 3 tcp 592 ------- 0 1.0 5.0 1 24
h 1.860531 3 6 tcp 592 ------- 0 1.0 5.0 1 24
r 1.866085 6 3 ack 40 ------- 2 4.0 0.0 9 28
+ 1.866085 3 2 ack 40 ------- 2 4.0 0.0 9 28
- 1.866085 3 2 ack 40 ------- 2 4.0 0.0 9 28
r 1.869281 6 4 tcp 1040 ------- 2 0.0 4.0 12 21
h 1.869281 4 6 ack 40 ------- 2 4.0 0.0 12 31
r 1.876317 2 3 tcp 592 ------- 0 1.0 5.0 2 25
h 1.876317 3 6 tcp 592 ------- 0 1.0 5.0 2 25
+ 1.881548 4 6 ack 40 ------- 2 4.0 0.0 11 30
- 1.881548 4 6 ack 40 ------- 2 4.0 0.0 11 30
d 1.881552 5 6 ack 40 ------- 2 4.0 0.0 11 30
+ 1.884744 3 6 tcp 1040 ------- 2 0.0 4.0 14 23
- 1.884744 3 6 tcp 1040 ------- 2 0.0 4.0 14 23
d 1.884748 5 6 tcp 1040 ------- 2 0.0 4.0 14 23
r 1.893819 6 3 ack 40 ------- 2 4.0 0.0 10 29
+ 1.893819 3 2 ack 40 ------- 2 4.0 0.0 10 29
- 1.893819 3 2 ack 40 ------- 2 4.0 0.0 10 29
r 1.897015 6 4 tcp 1040 ------- 2 0.0 4.0 13 22
h 1.897015 4 6 ack 40 ------- 2 4.0 0.0 13 32
+ 1.900531 3 6 tcp 592 ------- 0 1.0 5.0 1 24
- 1.900531 3 6 tcp 592 ------- 0 1.0 5.0 1 24
d 1.900535 4 6 tcp 592 ------- 0 1.0 5.0 1 24
+ 1.909281 4 6 ack 40 ------- 2 4.0 0.0 12 31
- 1.909281 4 6 ack 40 ------- 2 4.0 0.0 12 31
d 1.909285 5 6 ack 40 ------- 2 4.0 0.0 12 31
r 1.911685 3 2 ack 40 ------- 2 4.0 0.0 7 26
+ 1.911685 2 0 ack 40 ------- 2 4.0 0.0 7 26
- 1.911685 2 0 ack 40 ------- 2 4.0 0.0 7 26
+ 1.916317 3 6 tcp 592 ------- 0 1.0 5.0 2 25
- 1.916317 3 6 tcp 592 ------- 0 1.0 5.0 2 25
d 1.916321 4 6 tcp 592 ------- 0 1.0 5.0 2 25
r 1.921552 6 3 ack 40 ------- 2 4.0 0.0 11 30
+ 1.921552 3 2 ack 40 ------- 2 4.0 0.0 11 30
- 1.921552 3 2 ack 40 ------- 2 4.0 0.0 11 30
r 1.921845 2 0 ack 40 ------- 2 4.0 0.0 7 26
+ 1.921845 0 2 tcp 1040 ------- 2 0.0 4.0 15 33
- 1.921845 0 2 tcp 1040 ------- 2 0.0 4.0 15 33
+ 1.921845 0 2 tcp 1040 ------- 2 0.0 4.0 16 34
r 1.924748 6 4 tcp 1040 ------- 2 0.0 4.0 14 23
h 1.924748 4 6 ack 40 ------- 2 4.0 0.0 14 35
- 1.926005 0 2 tcp 1040 ------- 2 0.0 4.0 16 34
r 1.936005 0 2 tcp 1040 ------- 2 0.0 4.0 15 33
+ 1.936005 2 3 tcp 1040 ------- 2 0.0 4.0 15 33
- 1.936005 2 3 tcp 1040 ------- 2 0.0 4.0 15 33
+ 1.937015 4 6 ack 40 ------- 2 4.0 0.0 13 32
- 1.937015 4 6 ack 40 ------- 2 4.0 0.0 13 32
d 1.937019 5 6 ack 40 ------- 2 4.0 0.0 13 32
r 1.939419 3 2 ack 40 ------- 2 4.0 0.0 8 27
+ 1.939419 2 0 ack 40 ------- 2 4.0 0.0 8 27
- 1.939419 2 0 ack 40 ------- 2 4.0 0.0 8 27
r 1.940165 0 2 tcp 1040 ------- 2 0.0 4.0 16 34
+ 1.940165 2 3 tcp 1040 ------- 2 0.0 4.0 16 34
r 1.940535 6 5 tcp 592 ------- 0 1.0 5.0 1 24
h 1.940535 5 6 ack 40 ------- 0 5.0 1.0 1 36
r 1.949285 6 3 ack 40 ------- 2 4.0 0.0 12 31
+ 1.949285 3 2 ack 40 ------- 2 4.0 0.0 12 31
- 1.949285 3 2 ack 40 ------- 2 4.0 0.0 12 31
r 1.949579 2 0 ack 40 ------- 2 4.0 0.0 8 27
+ 1.949579 0 2 tcp 1040 ------- 2 0.0 4.0 17 37
- 1.949579 0 2 tcp 1040 ------- 2 0.0 4.0 17 37
+ 1.949579 0 2 tcp 1040 ------- 2 0.0 4.0 18 38
- 1.953739 0 2 tcp 1040 ------- 2 0.0 4.0 18 38
r 1.956321 6 5 tcp 592 ------- 0 1.0 5.0 2 25
h 1.956321 5 6 ack 40 ------- 0 5.0 1.0 2 39
- 1.963739 2 3 tcp 1040 ------- 2 0.0 4.0 16 34
r 1.963739 0 2 tcp 1040 ------- 2 0.0 4.0 17 37
+ 1.963739 2 3 tcp 1040 ------- 2 0.0 4.0 17 37
+ 1.964748 4 6 ack 40 ------- 2 4.0 0.0 14 35
- 1.964748 4 6 ack 40 ------- 2 4.0 0.0 14 35
d 1.964752 5 6 ack 40 ------- 2 4.0 0.0 14 35
r 1.967152 3 2 ack 40 ------- 2 4.0 0.0 9 28
+ 1.967152 2 0 ack 40 ------- 2 4.0 0.0 9 28
- 1.967152 2 0 ack 40 ------- 2 4.0 0.0 9 28
r 1.967899 0 2 tcp 1040 ------- 2 0.0 4.0 18 38
+ 1.967899 2 3 tcp 1040 ------- 2 0.0 4.0 18 38
r 1.977019 6 3 ack 40 ------- 2 4.0 0.0 13 32
+ 1.977019 3 2 ack 40 ------- 2 4.0 0.0 13 32
- 1.977019 3 2 ack 40 ------- 2 4.0 0.0 13 32
r 1.977312 2 0 ack 40 ------- 2 4.0 0.0 9 28
+ 1.977312 0 2 tcp 1040 ------- 2 0.0 4.0 19 40
- 1.977312 0 2 tcp 1040 ------- 2 0.0 4.0 19 40
+ 1.977312 0 2 tcp 1040 ------- 2 0.0 4.0 20 41
+ 1.980535 5 6 ack 40 ------- 0 5.0 1.0 1 36
- 1.980535 5 6 ack 40 ------- 0 5.0 1.0 1 36
d 1.980539 4 6 ack 40 ------- 0 5.0 1.0 1 36
- 1.981472 0 2 tcp 1040 ------- 2 0.0 4.0 20 41
- 1.991472 2 3 tcp 1040 ------- 2 0.0 4.0 17 37
r 1.991472 0 2 tcp 1040 ------- 2 0.0 4.0 19 40
+ 1.991472 2 3 tcp 1040 ------- 2 0.0 4.0 19 40
r 1.994885 3 2 ack 40 ------- 2 4.0 0.0 10 29
+ 1.994885 2 0 ack 40 ------- 2 4.0 0.0 10 29
- 1.994885 2 0 ack 40 ------- 2 4.0 0.0 10 29
r 1.995632 0 2 tcp 1040 ------- 2 0.0 4.0 20 41
+ 1.995632 2 3 tcp 1040 ------- 2 0.0 4.0 20 41
+ 1.996321 5 6 ack 40 ------- 0 5.0 1.0 2 39
- 1.996321 5 6 ack 40 ------- 0 5.0 1.0 2 39
d 1.996325 4 6 ack 40 ------- 0 5.0 1.0 2 39
r 2.004752 6 3 ack 40 ------- 2 4.0 0.0 14 35
+ 2.004752 3 2 ack 40 ------- 2 4.0 0.0 14 35
- 2.004752 3 2 ack 40 ------- 2 4.0 0.0 14 35
r 2.005045 2 0 ack 40 ------- 2 4.0 0.0 10 29
+ 2.005045 0 2 tcp 1040 ------- 2 0.0 4.0 21 42
- 2.005045 0 2 tcp 1040 ------- 2 0.0 4.0 21 42
+ 2.005045 0 2 tcp 1040 ------- 2 0.0 4.0 22 43
- 2.009205 0 2 tcp 1040 ------- 2 0.0 4.0 22 43
- 2.019205 2 3 tcp 1040 ------- 2 0.0 4.0 18 38
r 2.019205 0 2 tcp 1040 ------- 2 0.0 4.0 21 42
+ 2.019205 2 3 tcp 1040 ------- 2 0.0 4.0 21 42
r 2.020539 6 3 ack 40 ------- 0 5.0 1.0 1 36
+ 2.020539 3 2 ack 40 ------- 0 5.0 1.0 1 36
- 2.020539 3 2 ack 40 ------- 0 5.0 1.0 1 36
r 2.022619 3 2 ack 40 ------- 2 4.0 0.0 11 30
+ 2.022619 2 0 ack 40 ------- 2 4.0 0.0 11 30
- 2.022619 2 0 ack 40 ------- 2 4.0 0.0 11 30
r 2.023365 0 2 tcp 1040 ------- 2 0.0 4.0 22 43
+ 2.023365 2 3 tcp 1040 ------- 2 0.0 4.0 22 43
r 2.032779 2 0 ack 40 ------- 2 4.0 0.0 11 30
+ 2.032779 0 2 tcp 1040 ------- 2 0.0 4.0 23 44
- 2.032779 0 2 tcp 1040 ------- 2 0.0 4.0 23 44
+ 2.032779 0 2 tcp 1040 ------- 2 0.0 4.0 24 45
r 2.036325 6 3 ack 40 ------- 0 5.0 1.0 2 39
+ 2.036325 3 2 ack 40 ------- 0 5.0 1.0 2 39
- 2.036325 3 2 ack 40 ------- 0 5.0 1.0 2 39
- 2.036939 0 2 tcp 1040 ------- 2 0.0 4.0 24 45
- 2.046939 2 3 tcp 1040 ------- 2 0.0 4.0 19 40
r 2.046939 0 2 tcp 1040 ------- 2 0.0 4.0 23 44
+ 2.046939 2 3 tcp 1040 ------- 2 0.0 4.0 23 44
r 2.050352 3 2 ack 40 ------- 2 4.0 0.0 12 31
+ 2.050352 2 0 ack 40 ------- 2 4.0 0.0 12 31
- 2.050352 2 0 ack 40 ------- 2 4.0 0.0 12 31
r 2.051099 0 2 tcp 1040 ------- 2 0.0 4.0 24 45
+ 2.051099 2 3 tcp 1040 ------- 2 0.0 4.0 24 45
r 2.060512 2 0 ack 40 ------- 2 4.0 0.0 12 31
+ 2.060512 0 2 tcp 1040 ------- 2 0.0 4.0 25 46
- 2.060512 0 2 tcp 1040 ------- 2 0.0 4.0 25 46
+ 2.060512 0 2 tcp 1040 ------- 2 0.0 4.0 26 47
r 2.063739 2 3 tcp 1040 ------- 2 0.0 4.0 15 33
h 2.063739 3 6 tcp 1040 ------- 2 0.0 4.0 15 33
- 2.064672 0 2 tcp 1040 ------- 2 0.0 4.0 26 47
- 2.074672 2 3 tcp 1040 ------- 2 0.0 4.0 20 41
r 2.074672 0 2 tcp 1040 ------- 2 0.0 4.0 25 46
+ 2.074672 2 3 tcp 1040 ------- 2 0.0 4.0 25 46
r 2.078085 3 2 ack 40 ------- 2 4.0 0.0 13 32
+ 2.078085 2 0 ack 40 ------- 2 4.0 0.0 13 32
- 2.078085 2 0 ack 40 ------- 2 4.0 0.0 13 32
r 2.078832 0 2 tcp 1040 ------- 2 0.0 4.0 26 47
+ 2.078832 2 3 tcp 1040 ------- 2 0.0 4.0 26 47
r 2.088245 2 0 ack 40 ------- 2 4.0 0.0 13 32
+ 2.088245 0 2 tcp 1040 ------- 2 0.0 4.0 27 48
- 2.088245 0 2 tcp 1040 ------- 2 0.0 4.0 27 48
+ 2.088245 0 2 tcp 1040 ------- 2 0.0 4.0 28 49
r 2.091472 2 3 tcp 1040 ------- 2 0.0 4.0 16 34
h 2.091472 3 6 tcp 1040 ------- 2 0.0 4.0 16 34
- 2.092405 0 2 tcp 1040 ------- 2 0.0 4.0 28 49
- 2.102405 2 3 tcp 1040 ------- 2 0.0 4.0 21 42
r 2.102405 0 2 tcp 1040 ------- 2 0.0 4.0 27 48
+ 2.102405 2 3 tcp 1040 ------- 2 0.0 4.0 27 48
+ 2.103739 3 6 tcp 1040 ------- 2 0.0 4.0 15 33
- 2.103739 3 6 tcp 1040 ------- 2 0.0 4.0 15 33
d 2.103743 5 6 tcp 1040 ------- 2 0.0 4.0 15 33
r 2.105819 3 2 ack 40 ------- 2 4.0 0.0 14 35
+ 2.105819 2 0 ack 40 ------- 2 4.0 0.0 14 35
- 2.105819 2 0 ack 40 ------- 2 4.0 0.0 14 35
r 2.106565 0 2 tcp 1040 ------- 2 0.0 4.0 28 49
+ 2.106565 2 3 tcp 1040 ------- 2 0.0 4.0 28 49
r 2.115979 2 0 ack 40 ------- 2 4.0 0.0 14 35
+ 2.115979 0 2 tcp 1040 ------- 2 0.0 4.0 29 50
- 2.115979 0 2 tcp 1040 ------- 2 0.0 4.0 29 50
+ 2.115979 0 2 tcp 1040 ------- 2 0.0 4.0 30 51
r 2.119205 2 3 tcp 1040 ------- 2 0.0 4.0 17 37
h 2.119205 3 6 tcp 1040 ------- 2 0.0 4.0 17 37
- 2.120139 0 2 tcp 1040 ------- 2 0.0 4.0 30 51
r 2.121605 3 2 ack 40 ------- 0 5.0 1.0 1 36
+ 2.121605 2 1 ack 40 ------- 0 5.0 1.0 1 36
- 2.121605 2 1 ack 40 ------- 0 5.0 1.0 1 36
- 2.130139 2 3 tcp 1040 ------- 2 0.0 4.0 22 43
r 2.130139 0 2 tcp 1040 ------- 2 0.0 4.0 29 50
+ 2.130139 2 3 tcp 1040 ------- 2 0.0 4.0 29 50
+ 2.131472 3 6 tcp 1040 ------- 2 0.0 4.0 16 34
- 2.131472 3 6 tcp 1040 ------- 2 0.0 4.0 16 34
d 2.131476 5 6 tcp 1040 ------- 2 0.0 4.0 16 34
r 2.131765 2 1 ack 40 ------- 0 5.0 1.0 1 36
r 2.134299 0 2 tcp 1040 ------- 2 0.0 4.0 30 51
+ 2.134299 2 3 tcp 1040 ------- 2 0.0 4.0 30 51
r 2.137392 3 2 ack 40 ------- 0 5.0 1.0 2 39
+ 2.137392 2 1 ack 40 ------- 0 5.0 1.0 2 39
- 2.137392 2 1 ack 40 ------- 0 5.0 1.0 2 39
r 2.143743 6 4 tcp 1040 ------- 2 0.0 4.0 15 33
h 2.143743 4 6 ack 40 ------- 2 4.0 0.0 15 52
r 2.146939 2 3 tcp 1040 ------- 2 0.0 4.0 18 38
h 2.146939 3 6 tcp 1040 ------- 2 0.0 4.0 18 38
r 2.147552 2 1 ack 40 ------- 0 5.0 1.0 2 39
- 2.157872 2 3 tcp 1040 ------- 2 0.0 4.0 23 44
+ 2.159205 3 6 tcp 1040 ------- 2 0.0 4.0 17 37
- 2.159205 3 6 tcp 1040 ------- 2 0.0 4.0 17 37
d 2.159209 5 6 tcp 1040 ------- 2 0.0 4.0 17 37
r 2.171476 6 4 tcp 1040 ------- 2 0.0 4.0 16 34
h 2.171476 4 6 ack 40 ------- 2 4.0 0.0 16 53
r 2.174672 2 3 tcp 1040 ------- 2 0.0 4.0 19 40
h 2.174672 3 6 tcp 1040 ------- 2 0.0 4.0 19 40
+ 2.183743 4 6 ack 40 ------- 2 4.0 0.0 15 52
- 2.183743 4 6 ack 40 ------- 2 4.0 0.0 15 52
d 2.183747 5 6 ack 40 ------- 2 4.0 0.0 15 52
- 2.185605 2 3 tcp 1040 ------- 2 0.0 4.0 24 45
+ 2.186939 3 6 tcp 1040 ------- 2 0.0 4.0 18 38
- 2.186939 3 6 tcp 1040 ------- 2 0.0 4.0 18 38
d 2.186943 5 6 tcp 1040 ------- 2 0.0 4.0 18 38
r 2.199209 6 4 tcp 1040 ------- 2 0.0 4.0 17 37
h 2.199209 4 6 ack 40 ------- 2 4.0 0.0 17 54
r 2.202405 2 3 tcp 1040 ------- 2 0.0 4.0 20 41
h 2.202405 3 6 tcp 1040 ------- 2 0.0 4.0 20 41
+ 2.211476 4 6 ack 40 ------- 2 4.0 0.0 16 53
- 2.211476 4 6 ack 40 ------- 2 4.0 0.0 16 53
d 2.21148 5 6 ack 40 ------- 2 4.0 0.0 16 53
- 2.213339 2 3 tcp 1040 ------- 2 0.0 4.0 25 46
+ 2.214672 3 6 tcp 1040 ------- 2 0.0 4.0 19 40
- 2.214672 3 6 tcp 1040 ------- 2 0.0 4.0 19 40
d 2.214676 5 6 tcp 1040 ------- 2 0.0 4.0 19 40
r 2.223747 6 3 ack 40 ------- 2 4.0 0.0 15 52
+ 2.223747 3 2 ack 40 ------- 2 4.0 0.0 15 52
- 2.223747 3 2 ack 40 ------- 2 4.0 0.0 15 52
r 2.226943 6 4 tcp 1040 ------- 2 0.0 4.0 18 38
h 2.226943 4 6 ack 40 ------- 2 4.0 0.0 18 55
r 2.230139 2 3 tcp 1040 ------- 2 0.0 4.0 21 42
h 2.230139 3 6 tcp 1040 ------- 2 0.0 4.0 21 42
+ 2.239209 4 6 ack 40 ------- 2 4.0 0.0 17 54
- 2.239209 4 6 ack 40 ------- 2 4.0 0.0 17 54
d 2.239213 5 6 ack 40 ------- 2 4.0 0.0 17 54
- 2.241072 2 3 tcp 1040 ------- 2 0.0 4.0 26 47
+ 2.242405 3 6 tcp 1040 ------- 2 0.0 4.0 20 41
- 2.242405 3 6 tcp 1040 ------- 2 0.0 4.0 20 41
d 2.242409 5 6 tcp 1040 ------- 2 0.0 4.0 20 41
r 2.25148 6 3 ack 40 ------- 2 4.0 0.0 16 53
+ 2.25148 3 2 ack 40 ------- 2 4.0 0.0 16 53
- 2.25148 3 2 ack 40 ------- 2 4.0 0.0 16 53
r 2.254676 6 4 tcp 1040 ------- 2 0.0 4.0 19 40
h 2.254676 4 6 ack 40 ------- 2 4.0 0.0 19 56
r 2.257872 2 3 tcp 1040 ------- 2 0.0 4.0 22 43
h 2.257872 3 6 tcp 1040 ------- 2 0.0 4.0 22 43
+ 2.266943 4 6 ack 40 ------- 2 4.0 0.0 18 55
- 2.266943 4 6 ack 40 ------- 2 4.0 0.0 18 55
d 2.266947 5 6 ack 40 ------- 2 4.0 0.0 18 55
- 2.268805 2 3 tcp 1040 ------- 2 0.0 4.0 27 48
+ 2.270139 3 6 tcp 1040 ------- 2 0.0 4.0 21 42
- 2.270139 3 6 tcp 1040 ------- 2 0.0 4.0 21 42
d 2.270143 5 6 tcp 1040 ------- 2 0.0 4.0 21 42
r 2.279213 6 3 ack 40 ------- 2 4.0 0.0 17 54
+ 2.279213 3 2 ack 40 ------- 2 4.0 0.0 17 54
- 2.279213 3 2 ack 40 ------- 2 4.0 0.0 17 54
r 2.282409 6 4 tcp 1040 ------- 2 0.0 4.0 20 41
h 2.282409 4 6 ack 40 ------- 2 4.0 0.0 20 57
r 2.285605 2 3 tcp 1040 ------- 2 0.0 4.0 23 44
h 2.285605 3 6 tcp 1040 ------- 2 0.0 4.0 23 44
+ 2.294676 4 6 ack 40 ------- 2 4.0 0.0 19 56
- 2.294676 4 6 ack 40 ------- 2 4.0 0.0 19 56
d 2.29468 5 6 ack 40 ------- 2 4.0 0.0 19 56
- 2.296539 2 3 tcp 1040 ------- 2 0.0 4.0 28 49
+ 2.297872 3 6 tcp 1040 ------- 2 0.0 4.0 22 43
- 2.297872 3 6 tcp 1040 ------- 2 0.0 4.0 22 43
d 2.297876 5 6 tcp 1040 ------- 2 0.0 4.0 22 43
r 2.306947 6 3 ack 40 ------- 2 4.0 0.0 18 55
+ 2.306947 3 2 ack 40 ------- 2 4.0 0.0 18 55
- 2.306947 3 2 ack 40 ------- 2 4.0 0.0 18 55
r 2.310143 6 4 tcp 1040 ------- 2 0.0 4.0 21 42
h 2.310143 4 6 ack 40 ------- 2 4.0 0.0 21 58
r 2.313339 2 3 tcp 1040 ------- 2 0.0 4.0 24 45
h 2.313339 3 6 tcp 1040 ------- 2 0.0 4.0 24 45
+ 2.322409 4 6 ack 40 ------- 2 4.0 0.0 20 57
- 2.322409 4 6 ack 40 ------- 2 4.0 0.0 20 57
d 2.322413 5 6 ack 40 ------- 2 4.0 0.0 20 57
- 2.324272 2 3 tcp 1040 ------- 2 0.0 4.0 29 50
r 2.324813 3 2 ack 40 ------- 2 4.0 0.0 15 52
+ 2.324813 2 0 ack 40 ------- 2 4.0 0.0 15 52
- 2.324813 2 0 ack 40 ------- 2 4.0 0.0 15 52
+ 2.325605 3 6 tcp 1040 ------- 2 0.0 4.0 23 44
- 2.325605 3 6 tcp 1040 ------- 2 0.0 4.0 23 44
d 2.325609 5 6 tcp 1040 ------- 2 0.0 4.0 23 44
r 2.33468 6 3 ack 40 ------- 2 4.0 0.0 19 56
+ 2.33468 3 2 ack 40 ------- 2 4.0 0.0 19 56
- 2.33468 3 2 ack 40 ------- 2 4.0 0.0 19 56
r 2.334973 2 0 ack 40 ------- 2 4.0 0.0 15 52
+ 2.334973 0 2 tcp 1040 ------- 2 0.0 4.0 31 59
- 2.334973 0 2 tcp 1040 ------- 2 0.0 4.0 31 59
+ 2.334973 0 2 tcp 1040 ------- 2 0.0 4.0 32 60
r 2.337876 6 4 tcp 1040 ------- 2 0.0 4.0 22 43
h 2.337876 4 6 ack 40 ------- 2 4.0 0.0 22 61
- 2.339133 0 2 tcp 1040 ------- 2 0.0 4.0 32 60
r 2.341072 2 3 tcp 1040 ------- 2 0.0 4.0 25 46
h 2.341072 3 6 tcp 1040 ------- 2 0.0 4.0 25 46
r 2.349133 0 2 tcp 1040 ------- 2 0.0 4.0 31 59
+ 2.349133 2 3 tcp 1040 ------- 2 0.0 4.0 31 59
+ 2.350143 4 6 ack 40 ------- 2 4.0 0.0 21 58
- 2.350143 4 6 ack 40 ------- 2 4.0 0.0 21 58
d 2.350147 5 6 ack 40 ------- 2 4.0 0.0 21 58
- 2.352005 2 3 tcp 1040 ------- 2 0.0 4.0 30 51
r 2.352547 3 2 ack 40 ------- 2 4.0 0.0 16 53
+ 2.352547 2 0 ack 40 ------- 2 4.0 0.0 16 53
- 2.352547 2 0 ack 40 ------- 2 4.0 0.0 16 53
r 2.353293 0 2 tcp 1040 ------- 2 0.0 4.0 32 60
+ 2.353293 2 3 tcp 1040 ------- 2 0.0 4.0 32 60
+ 2.353339 3 6 tcp 1040 ------- 2 0.0 4.0 24 45
- 2.353339 3 6 tcp 1040 ------- 2 0.0 4.0 24 45
d 2.353343 5 6 tcp 1040 ------- 2 0.0 4.0 24 45
r 2.362413 6 3 ack 40 ------- 2 4.0 0.0 20 57
+ 2.362413 3 2 ack 40 ------- 2 4.0 0.0 20 57
- 2.362413 3 2 ack 40 ------- 2 4.0 0.0 20 57
r 2.362707 2 0 ack 40 ------- 2 4.0 0.0 16 53
+ 2.362707 0 2 tcp 1040 ------- 2 0.0 4.0 33 62
- 2.362707 0 2 tcp 1040 ------- 2 0.0 4.0 33 62
+ 2.362707 0 2 tcp 1040 ------- 2 0.0 4.0 34 63
r 2.365609 6 4 tcp 1040 ------- 2 0.0 4.0 23 44
h 2.365609 4 6 ack 40 ------- 2 4.0 0.0 23 64
- 2.366867 0 2 tcp 1040 ------- 2 0.0 4.0 34 63
r 2.368805 2 3 tcp 1040 ------- 2 0.0 4.0 26 47
h 2.368805 3 6 tcp 1040 ------- 2 0.0 4.0 26 47
r 2.376867 0 2 tcp 1040 ------- 2 0.0 4.0 33 62
+ 2.376867 2 3 tcp 1040 ------- 2 0.0 4.0 33 62
+ 2.377876 4 6 ack 40 ------- 2 4.0 0.0 22 61
- 2.377876 4 6 ack 40 ------- 2 4.0 0.0 22 61
d 2.37788 5 6 ack 40 ------- 2 4.0 0.0 22 61
- 2.379739 2 3 tcp 1040 ------- 2 0.0 4.0 31 59
r 2.38028 3 2 ack 40 ------- 2 4.0 0.0 17 54
+ 2.38028 2 0 ack 40 ------- 2 4.0 0.0 17 54
- 2.38028 2 0 ack 40 ------- 2 4.0 0.0 17 54
r 2.381027 0 2 tcp 1040 ------- 2 0.0 4.0 34 63
+ 2.381027 2 3 tcp 1040 ------- 2 0.0 4.0 34 63
+ 2.381072 3 6 tcp 1040 ------- 2 0.0 4.0 25 46
- 2.381072 3 6 tcp 1040 ------- 2 0.0 4.0 25 46
d 2.381076 5 6 tcp 1040 ------- 2 0.0 4.0 25 46
r 2.390147 6 3 ack 40 ------- 2 4.0 0.0 21 58
+ 2.390147 3 2 ack 40 ------- 2 4.0 0.0 21 58
- 2.390147 3 2 ack 40 ------- 2 4.0 0.0 21 58
r 2.39044 2 0 ack 40 ------- 2 4.0 0.0 17 54
+ 2.39044 0 2 tcp 1040 ------- 2 0.0 4.0 35 65
- 2.39044 0 2 tcp 1040 ------- 2 0.0 4.0 35 65
+ 2.39044 0 2 tcp 1040 ------- 2 0.0 4.0 36 66
r 2.393343 6 4 tcp 1040 ------- 2 0.0 4.0 24 45
h 2.393343 4 6 ack 40 ------- 2 4.0 0.0 24 67
- 2.3946 0 2 tcp 1040 ------- 2 0.0 4.0 36 66
r 2.396539 2 3 tcp 1040 ------- 2 0.0 4.0 27 48
h 2.396539 3 6 tcp 1040 ------- 2 0.0 4.0 27 48
r 2.4046 0 2 tcp 1040 ------- 2 0.0 4.0 35 65
+ 2.4046 2 3 tcp 1040 ------- 2 0.0 4.0 35 65
+ 2.405609 4 6 ack 40 ------- 2 4.0 0.0 23 64
- 2.405609 4 6 ack 40 ------- 2 4.0 0.0 23 64
d 2.405613 5 6 ack 40 ------- 2 4.0 0.0 23 64
- 2.407472 2 3 tcp 1040 ------- 2 0.0 4.0 32 60
r 2.408013 3 2 ack 40 ------- 2 4.0 0.0 18 55
+ 2.408013 2 0 ack 40 ------- 2 4.0 0.0 18 55
- 2.408013 2 0 ack 40 ------- 2 4.0 0.0 18 55
r 2.40876 0 2 tcp 1040 ------- 2 0.0 4.0 36 66
+ 2.40876 2 3 tcp 1040 ------- 2 0.0 4.0 36 66
+ 2.408805 3 6 tcp 1040 ------- 2 0.0 4.0 26 47
- 2.408805 3 6 tcp 1040 ------- 2 0.0 4.0 26 47